-- SPDX-License-Identifier: CC0-1.0

-- SPE11A example grid for reservoir simulation input in Eclipse format
-- This is a representative model constructed using SPE11 CSP data

-- The full model description is in the document spe_csp11_description.pdf
-- The facies distribution is defined in the geometry file spe11a.geo

-- This data does not represent a "best solution" to the benchmark challenge
-- It is provided to encourage benchmark participants to build their own models
-- Use this as a starting point to set up a test case and visualize the grid
-- Then consider how to improve the model by constructing your own grid
 
-- In this example, we use a regular Cartesian simulation grid:
-- 280x1x120 cells with dimensions DX = DY = DZ = 0.01m
-- Units are "Eclipse metric"
-- The grid uses default Eclipse orientation with axis origin at top left
-- Z values increase downwards representing depth

-- A script was used to map facies to cells and assign porosity and permeability
-- This file contains the grid geometry definition
-- Use it with the related files:
-- SPE11A_PROPS_ECLIPSE_OCT23.GRDECL  - arrays for PERMX, PERMY, PERMZ and PORO
-- SPE11A_SATNUM_ECLIPSE_OCT23.GRDECL - region array for SATNUM (facies numbers)

-- Updated 12 Oct 2023

-- Please keep the comments shown above with any copies of this file


PINCH                                  -- Generated : Petrel
  /

NOECHO                                 -- Generated : Petrel

MAPUNITS                               -- Generated : Petrel
  METRES /

MAPAXES                                -- Generated : Petrel
  0 -1000 0 0 1000 0 /

GRIDUNIT                               -- Generated : Petrel
  METRES /

SPECGRID                               -- Generated : Petrel
  280 1 120 1 F /

COORDSYS                               -- Generated : Petrel
  1 120 /

COORD                                  -- Generated : Petrel
  5*0 1.200000048 0.009999999776 2*0 0.009999999776 0 1.200000048 0.01999999955 2*0 0.01999999955 0 1.200000048 0.02999999933 2*0
  0.02999999933 0 1.200000048 0.03999999911 2*0 0.03999999911 0 1.200000048 0.05000000075 2*0 0.05000000075 0 1.200000048
  0.05999999866 2*0 0.05999999866 0 1.200000048 0.0700000003 2*0 0.0700000003 0 1.200000048 0.07999999821 2*0 0.07999999821 0
  1.200000048 0.09000000358 2*0 0.09000000358 0 1.200000048 0.1000000015 2*0 0.1000000015 0 1.200000048 0.1099999994 2*0
  0.1099999994 0 1.200000048 0.1199999973 2*0 0.1199999973 0 1.200000048 0.1299999952 2*0 0.1299999952 0 1.200000048 0.1400000006 0
  0 0.1400000006 0 1.200000048 0.150000006 2*0 0.150000006 0 1.200000048 0.1599999964 2*0 0.1599999964 0 1.200000048 0.1700000018 0
  0 0.1700000018 0 1.200000048 0.1800000072 2*0 0.1800000072 0 1.200000048 0.1899999976 2*0 0.1899999976 0 1.200000048 0.200000003 0
  0 0.200000003 0 1.200000048 0.2099999934 2*0 0.2099999934 0 1.200000048 0.2199999988 2*0 0.2199999988 0 1.200000048 0.2300000042 0
  0 0.2300000042 0 1.200000048 0.2399999946 2*0 0.2399999946 0 1.200000048 0.25 2*0 0.25 0 1.200000048 0.2599999905 2*0
  0.2599999905 0 1.200000048 0.2700000107 2*0 0.2700000107 0 1.200000048 0.2800000012 2*0 0.2800000012 0 1.200000048 0.2899999917 0
  0 0.2899999917 0 1.200000048 0.3000000119 2*0 0.3000000119 0 1.200000048 0.3100000024 2*0 0.3100000024 0 1.200000048 0.3199999928
  2*0 0.3199999928 0 1.200000048 0.3300000131 2*0 0.3300000131 0 1.200000048 0.3400000036 2*0 0.3400000036 0 1.200000048 0.349999994
  2*0 0.349999994 0 1.200000048 0.3600000143 2*0 0.3600000143 0 1.200000048 0.3700000048 2*0 0.3700000048 0 1.200000048 0.3799999952
  2*0 0.3799999952 0 1.200000048 0.3899999857 2*0 0.3899999857 0 1.200000048 0.400000006 2*0 0.400000006 0 1.200000048 0.4099999964
  2*0 0.4099999964 0 1.200000048 0.4199999869 2*0 0.4199999869 0 1.200000048 0.4300000072 2*0 0.4300000072 0 1.200000048
  0.4399999976 2*0 0.4399999976 0 1.200000048 0.4499999881 2*0 0.4499999881 0 1.200000048 0.4600000083 2*0 0.4600000083 0
  1.200000048 0.4699999988 2*0 0.4699999988 0 1.200000048 0.4799999893 2*0 0.4799999893 0 1.200000048 0.4900000095 2*0 0.4900000095
  0 1.200000048 0.5 2*0 0.5 0 1.200000048 0.5099999905 2*0 0.5099999905 0 1.200000048 0.5199999809 2*0 0.5199999809 0 1.200000048
  0.5299999714 2*0 0.5299999714 0 1.200000048 0.5400000215 2*0 0.5400000215 0 1.200000048 0.5500000119 2*0 0.5500000119 0
  1.200000048 0.5600000024 2*0 0.5600000024 0 1.200000048 0.5699999928 2*0 0.5699999928 0 1.200000048 0.5799999833 2*0 0.5799999833
  0 1.200000048 0.5899999738 2*0 0.5899999738 0 1.200000048 0.6000000238 2*0 0.6000000238 0 1.200000048 0.6100000143 2*0
  0.6100000143 0 1.200000048 0.6200000048 2*0 0.6200000048 0 1.200000048 0.6299999952 2*0 0.6299999952 0 1.200000048 0.6399999857 0
  0 0.6399999857 0 1.200000048 0.6499999762 2*0 0.6499999762 0 1.200000048 0.6600000262 2*0 0.6600000262 0 1.200000048 0.6700000167
  2*0 0.6700000167 0 1.200000048 0.6800000072 2*0 0.6800000072 0 1.200000048 0.6899999976 2*0 0.6899999976 0 1.200000048
  0.6999999881 2*0 0.6999999881 0 1.200000048 0.7099999785 2*0 0.7099999785 0 1.200000048 0.7200000286 2*0 0.7200000286 0
  1.200000048 0.7300000191 2*0 0.7300000191 0 1.200000048 0.7400000095 2*0 0.7400000095 0 1.200000048 0.75 2*0 0.75 0 1.200000048
  0.7599999905 2*0 0.7599999905 0 1.200000048 0.7699999809 2*0 0.7699999809 0 1.200000048 0.7799999714 2*0 0.7799999714 0
  1.200000048 0.7900000215 2*0 0.7900000215 0 1.200000048 0.8000000119 2*0 0.8000000119 0 1.200000048 0.8100000024 2*0 0.8100000024
  0 1.200000048 0.8199999928 2*0 0.8199999928 0 1.200000048 0.8299999833 2*0 0.8299999833 0 1.200000048 0.8399999738 2*0
  0.8399999738 0 1.200000048 0.8500000238 2*0 0.8500000238 0 1.200000048 0.8600000143 2*0 0.8600000143 0 1.200000048 0.8700000048 0
  0 0.8700000048 0 1.200000048 0.8799999952 2*0 0.8799999952 0 1.200000048 0.8899999857 2*0 0.8899999857 0 1.200000048 0.8999999762
  2*0 0.8999999762 0 1.200000048 0.9100000262 2*0 0.9100000262 0 1.200000048 0.9200000167 2*0 0.9200000167 0 1.200000048
  0.9300000072 2*0 0.9300000072 0 1.200000048 0.9399999976 2*0 0.9399999976 0 1.200000048 0.9499999881 2*0 0.9499999881 0
  1.200000048 0.9599999785 2*0 0.9599999785 0 1.200000048 0.9700000286 2*0 0.9700000286 0 1.200000048 0.9800000191 2*0 0.9800000191
  0 1.200000048 0.9900000095 2*0 0.9900000095 0 1.200000048 1 2*0 1 0 1.200000048 1.00999999 2*0 1.00999999 0 1.200000048
  1.019999981 2*0 1.019999981 0 1.200000048 1.029999971 2*0 1.029999971 0 1.200000048 1.039999962 2*0 1.039999962 0 1.200000048
  1.049999952 2*0 1.049999952 0 1.200000048 1.059999943 2*0 1.059999943 0 1.200000048 1.070000052 2*0 1.070000052 0 1.200000048
  1.080000043 2*0 1.080000043 0 1.200000048 1.090000033 2*0 1.090000033 0 1.200000048 1.100000024 2*0 1.100000024 0 1.200000048
  1.110000014 2*0 1.110000014 0 1.200000048 1.120000005 2*0 1.120000005 0 1.200000048 1.129999995 2*0 1.129999995 0 1.200000048
  1.139999986 2*0 1.139999986 0 1.200000048 1.149999976 2*0 1.149999976 0 1.200000048 1.159999967 2*0 1.159999967 0 1.200000048
  1.169999957 2*0 1.169999957 0 1.200000048 1.179999948 2*0 1.179999948 0 1.200000048 1.190000057 2*0 1.190000057 0 1.200000048
  1.200000048 2*0 1.200000048 0 1.200000048 1.210000038 2*0 1.210000038 0 1.200000048 1.220000029 2*0 1.220000029 0 1.200000048
  1.230000019 2*0 1.230000019 0 1.200000048 1.24000001 2*0 1.24000001 0 1.200000048 1.25 2*0 1.25 0 1.200000048 1.25999999 2*0
  1.25999999 0 1.200000048 1.269999981 2*0 1.269999981 0 1.200000048 1.279999971 2*0 1.279999971 0 1.200000048 1.289999962 2*0
  1.289999962 0 1.200000048 1.299999952 2*0 1.299999952 0 1.200000048 1.309999943 2*0 1.309999943 0 1.200000048 1.320000052 2*0
  1.320000052 0 1.200000048 1.330000043 2*0 1.330000043 0 1.200000048 1.340000033 2*0 1.340000033 0 1.200000048 1.350000024 2*0
  1.350000024 0 1.200000048 1.360000014 2*0 1.360000014 0 1.200000048 1.370000005 2*0 1.370000005 0 1.200000048 1.379999995 2*0
  1.379999995 0 1.200000048 1.389999986 2*0 1.389999986 0 1.200000048 1.399999976 2*0 1.399999976 0 1.200000048 1.409999967 2*0
  1.409999967 0 1.200000048 1.419999957 2*0 1.419999957 0 1.200000048 1.429999948 2*0 1.429999948 0 1.200000048 1.440000057 2*0
  1.440000057 0 1.200000048 1.450000048 2*0 1.450000048 0 1.200000048 1.460000038 2*0 1.460000038 0 1.200000048 1.470000029 2*0
  1.470000029 0 1.200000048 1.480000019 2*0 1.480000019 0 1.200000048 1.49000001 2*0 1.49000001 0 1.200000048 1.5 2*0 1.5 0
  1.200000048 1.50999999 2*0 1.50999999 0 1.200000048 1.519999981 2*0 1.519999981 0 1.200000048 1.529999971 2*0 1.529999971 0
  1.200000048 1.539999962 2*0 1.539999962 0 1.200000048 1.549999952 2*0 1.549999952 0 1.200000048 1.559999943 2*0 1.559999943 0
  1.200000048 1.570000052 2*0 1.570000052 0 1.200000048 1.580000043 2*0 1.580000043 0 1.200000048 1.590000033 2*0 1.590000033 0
  1.200000048 1.600000024 2*0 1.600000024 0 1.200000048 1.610000014 2*0 1.610000014 0 1.200000048 1.620000005 2*0 1.620000005 0
  1.200000048 1.629999995 2*0 1.629999995 0 1.200000048 1.639999986 2*0 1.639999986 0 1.200000048 1.649999976 2*0 1.649999976 0
  1.200000048 1.659999967 2*0 1.659999967 0 1.200000048 1.669999957 2*0 1.669999957 0 1.200000048 1.679999948 2*0 1.679999948 0
  1.200000048 1.690000057 2*0 1.690000057 0 1.200000048 1.700000048 2*0 1.700000048 0 1.200000048 1.710000038 2*0 1.710000038 0
  1.200000048 1.720000029 2*0 1.720000029 0 1.200000048 1.730000019 2*0 1.730000019 0 1.200000048 1.74000001 2*0 1.74000001 0
  1.200000048 1.75 2*0 1.75 0 1.200000048 1.75999999 2*0 1.75999999 0 1.200000048 1.769999981 2*0 1.769999981 0 1.200000048
  1.779999971 2*0 1.779999971 0 1.200000048 1.789999962 2*0 1.789999962 0 1.200000048 1.799999952 2*0 1.799999952 0 1.200000048
  1.809999943 2*0 1.809999943 0 1.200000048 1.820000052 2*0 1.820000052 0 1.200000048 1.830000043 2*0 1.830000043 0 1.200000048
  1.840000033 2*0 1.840000033 0 1.200000048 1.850000024 2*0 1.850000024 0 1.200000048 1.860000014 2*0 1.860000014 0 1.200000048
  1.870000005 2*0 1.870000005 0 1.200000048 1.879999995 2*0 1.879999995 0 1.200000048 1.889999986 2*0 1.889999986 0 1.200000048
  1.899999976 2*0 1.899999976 0 1.200000048 1.909999967 2*0 1.909999967 0 1.200000048 1.919999957 2*0 1.919999957 0 1.200000048
  1.929999948 2*0 1.929999948 0 1.200000048 1.940000057 2*0 1.940000057 0 1.200000048 1.950000048 2*0 1.950000048 0 1.200000048
  1.960000038 2*0 1.960000038 0 1.200000048 1.970000029 2*0 1.970000029 0 1.200000048 1.980000019 2*0 1.980000019 0 1.200000048
  1.99000001 2*0 1.99000001 0 1.200000048 2 2*0 2 0 1.200000048 2.00999999 2*0 2.00999999 0 1.200000048 2.019999981 2*0 2.019999981
  0 1.200000048 2.029999971 2*0 2.029999971 0 1.200000048 2.039999962 2*0 2.039999962 0 1.200000048 2.049999952 2*0 2.049999952 0
  1.200000048 2.059999943 2*0 2.059999943 0 1.200000048 2.069999933 2*0 2.069999933 0 1.200000048 2.079999924 2*0 2.079999924 0
  1.200000048 2.089999914 2*0 2.089999914 0 1.200000048 2.099999905 2*0 2.099999905 0 1.200000048 2.109999895 2*0 2.109999895 0
  1.200000048 2.119999886 2*0 2.119999886 0 1.200000048 2.130000114 2*0 2.130000114 0 1.200000048 2.140000105 2*0 2.140000105 0
  1.200000048 2.150000095 2*0 2.150000095 0 1.200000048 2.160000086 2*0 2.160000086 0 1.200000048 2.170000076 2*0 2.170000076 0
  1.200000048 2.180000067 2*0 2.180000067 0 1.200000048 2.190000057 2*0 2.190000057 0 1.200000048 2.200000048 2*0 2.200000048 0
  1.200000048 2.210000038 2*0 2.210000038 0 1.200000048 2.220000029 2*0 2.220000029 0 1.200000048 2.230000019 2*0 2.230000019 0
  1.200000048 2.24000001 2*0 2.24000001 0 1.200000048 2.25 2*0 2.25 0 1.200000048 2.25999999 2*0 2.25999999 0 1.200000048
  2.269999981 2*0 2.269999981 0 1.200000048 2.279999971 2*0 2.279999971 0 1.200000048 2.289999962 2*0 2.289999962 0 1.200000048
  2.299999952 2*0 2.299999952 0 1.200000048 2.309999943 2*0 2.309999943 0 1.200000048 2.319999933 2*0 2.319999933 0 1.200000048
  2.329999924 2*0 2.329999924 0 1.200000048 2.339999914 2*0 2.339999914 0 1.200000048 2.349999905 2*0 2.349999905 0 1.200000048
  2.359999895 2*0 2.359999895 0 1.200000048 2.369999886 2*0 2.369999886 0 1.200000048 2.380000114 2*0 2.380000114 0 1.200000048
  2.390000105 2*0 2.390000105 0 1.200000048 2.400000095 2*0 2.400000095 0 1.200000048 2.410000086 2*0 2.410000086 0 1.200000048
  2.420000076 2*0 2.420000076 0 1.200000048 2.430000067 2*0 2.430000067 0 1.200000048 2.440000057 2*0 2.440000057 0 1.200000048
  2.450000048 2*0 2.450000048 0 1.200000048 2.460000038 2*0 2.460000038 0 1.200000048 2.470000029 2*0 2.470000029 0 1.200000048
  2.480000019 2*0 2.480000019 0 1.200000048 2.49000001 2*0 2.49000001 0 1.200000048 2.5 2*0 2.5 0 1.200000048 2.50999999 2*0
  2.50999999 0 1.200000048 2.519999981 2*0 2.519999981 0 1.200000048 2.529999971 2*0 2.529999971 0 1.200000048 2.539999962 2*0
  2.539999962 0 1.200000048 2.549999952 2*0 2.549999952 0 1.200000048 2.559999943 2*0 2.559999943 0 1.200000048 2.569999933 2*0
  2.569999933 0 1.200000048 2.579999924 2*0 2.579999924 0 1.200000048 2.589999914 2*0 2.589999914 0 1.200000048 2.599999905 2*0
  2.599999905 0 1.200000048 2.609999895 2*0 2.609999895 0 1.200000048 2.619999886 2*0 2.619999886 0 1.200000048 2.630000114 2*0
  2.630000114 0 1.200000048 2.640000105 2*0 2.640000105 0 1.200000048 2.650000095 2*0 2.650000095 0 1.200000048 2.660000086 2*0
  2.660000086 0 1.200000048 2.670000076 2*0 2.670000076 0 1.200000048 2.680000067 2*0 2.680000067 0 1.200000048 2.690000057 2*0
  2.690000057 0 1.200000048 2.700000048 2*0 2.700000048 0 1.200000048 2.710000038 2*0 2.710000038 0 1.200000048 2.720000029 2*0
  2.720000029 0 1.200000048 2.730000019 2*0 2.730000019 0 1.200000048 2.74000001 2*0 2.74000001 0 1.200000048 2.75 2*0 2.75 0
  1.200000048 2.75999999 2*0 2.75999999 0 1.200000048 2.769999981 2*0 2.769999981 0 1.200000048 2.779999971 2*0 2.779999971 0
  1.200000048 2.789999962 2*0 2.789999962 0 1.200000048 2.799999952 2*0 2.799999952 0 1.200000048 0 0.009999999776 2*0
  0.009999999776 1.200000048 2*0.009999999776 0 2*0.009999999776 1.200000048 0.01999999955 0.009999999776 0 0.01999999955
  0.009999999776 1.200000048 0.02999999933 0.009999999776 0 0.02999999933 0.009999999776 1.200000048 0.03999999911 0.009999999776 0
  0.03999999911 0.009999999776 1.200000048 0.05000000075 0.009999999776 0 0.05000000075 0.009999999776 1.200000048 0.05999999866
  0.009999999776 0 0.05999999866 0.009999999776 1.200000048 0.0700000003 0.009999999776 0 0.0700000003 0.009999999776 1.200000048
  0.07999999821 0.009999999776 0 0.07999999821 0.009999999776 1.200000048 0.09000000358 0.009999999776 0 0.09000000358
  0.009999999776 1.200000048 0.1000000015 0.009999999776 0 0.1000000015 0.009999999776 1.200000048 0.1099999994 0.009999999776 0
  0.1099999994 0.009999999776 1.200000048 0.1199999973 0.009999999776 0 0.1199999973 0.009999999776 1.200000048 0.1299999952
  0.009999999776 0 0.1299999952 0.009999999776 1.200000048 0.1400000006 0.009999999776 0 0.1400000006 0.009999999776 1.200000048
  0.150000006 0.009999999776 0 0.150000006 0.009999999776 1.200000048 0.1599999964 0.009999999776 0 0.1599999964 0.009999999776
  1.200000048 0.1700000018 0.009999999776 0 0.1700000018 0.009999999776 1.200000048 0.1800000072 0.009999999776 0 0.1800000072
  0.009999999776 1.200000048 0.1899999976 0.009999999776 0 0.1899999976 0.009999999776 1.200000048 0.200000003 0.009999999776 0
  0.200000003 0.009999999776 1.200000048 0.2099999934 0.009999999776 0 0.2099999934 0.009999999776 1.200000048 0.2199999988
  0.009999999776 0 0.2199999988 0.009999999776 1.200000048 0.2300000042 0.009999999776 0 0.2300000042 0.009999999776 1.200000048
  0.2399999946 0.009999999776 0 0.2399999946 0.009999999776 1.200000048 0.25 0.009999999776 0 0.25 0.009999999776 1.200000048
  0.2599999905 0.009999999776 0 0.2599999905 0.009999999776 1.200000048 0.2700000107 0.009999999776 0 0.2700000107 0.009999999776
  1.200000048 0.2800000012 0.009999999776 0 0.2800000012 0.009999999776 1.200000048 0.2899999917 0.009999999776 0 0.2899999917
  0.009999999776 1.200000048 0.3000000119 0.009999999776 0 0.3000000119 0.009999999776 1.200000048 0.3100000024 0.009999999776 0
  0.3100000024 0.009999999776 1.200000048 0.3199999928 0.009999999776 0 0.3199999928 0.009999999776 1.200000048 0.3300000131
  0.009999999776 0 0.3300000131 0.009999999776 1.200000048 0.3400000036 0.009999999776 0 0.3400000036 0.009999999776 1.200000048
  0.349999994 0.009999999776 0 0.349999994 0.009999999776 1.200000048 0.3600000143 0.009999999776 0 0.3600000143 0.009999999776
  1.200000048 0.3700000048 0.009999999776 0 0.3700000048 0.009999999776 1.200000048 0.3799999952 0.009999999776 0 0.3799999952
  0.009999999776 1.200000048 0.3899999857 0.009999999776 0 0.3899999857 0.009999999776 1.200000048 0.400000006 0.009999999776 0
  0.400000006 0.009999999776 1.200000048 0.4099999964 0.009999999776 0 0.4099999964 0.009999999776 1.200000048 0.4199999869
  0.009999999776 0 0.4199999869 0.009999999776 1.200000048 0.4300000072 0.009999999776 0 0.4300000072 0.009999999776 1.200000048
  0.4399999976 0.009999999776 0 0.4399999976 0.009999999776 1.200000048 0.4499999881 0.009999999776 0 0.4499999881 0.009999999776
  1.200000048 0.4600000083 0.009999999776 0 0.4600000083 0.009999999776 1.200000048 0.4699999988 0.009999999776 0 0.4699999988
  0.009999999776 1.200000048 0.4799999893 0.009999999776 0 0.4799999893 0.009999999776 1.200000048 0.4900000095 0.009999999776 0
  0.4900000095 0.009999999776 1.200000048 0.5 0.009999999776 0 0.5 0.009999999776 1.200000048 0.5099999905 0.009999999776 0
  0.5099999905 0.009999999776 1.200000048 0.5199999809 0.009999999776 0 0.5199999809 0.009999999776 1.200000048 0.5299999714
  0.009999999776 0 0.5299999714 0.009999999776 1.200000048 0.5400000215 0.009999999776 0 0.5400000215 0.009999999776 1.200000048
  0.5500000119 0.009999999776 0 0.5500000119 0.009999999776 1.200000048 0.5600000024 0.009999999776 0 0.5600000024 0.009999999776
  1.200000048 0.5699999928 0.009999999776 0 0.5699999928 0.009999999776 1.200000048 0.5799999833 0.009999999776 0 0.5799999833
  0.009999999776 1.200000048 0.5899999738 0.009999999776 0 0.5899999738 0.009999999776 1.200000048 0.6000000238 0.009999999776 0
  0.6000000238 0.009999999776 1.200000048 0.6100000143 0.009999999776 0 0.6100000143 0.009999999776 1.200000048 0.6200000048
  0.009999999776 0 0.6200000048 0.009999999776 1.200000048 0.6299999952 0.009999999776 0 0.6299999952 0.009999999776 1.200000048
  0.6399999857 0.009999999776 0 0.6399999857 0.009999999776 1.200000048 0.6499999762 0.009999999776 0 0.6499999762 0.009999999776
  1.200000048 0.6600000262 0.009999999776 0 0.6600000262 0.009999999776 1.200000048 0.6700000167 0.009999999776 0 0.6700000167
  0.009999999776 1.200000048 0.6800000072 0.009999999776 0 0.6800000072 0.009999999776 1.200000048 0.6899999976 0.009999999776 0
  0.6899999976 0.009999999776 1.200000048 0.6999999881 0.009999999776 0 0.6999999881 0.009999999776 1.200000048 0.7099999785
  0.009999999776 0 0.7099999785 0.009999999776 1.200000048 0.7200000286 0.009999999776 0 0.7200000286 0.009999999776 1.200000048
  0.7300000191 0.009999999776 0 0.7300000191 0.009999999776 1.200000048 0.7400000095 0.009999999776 0 0.7400000095 0.009999999776
  1.200000048 0.75 0.009999999776 0 0.75 0.009999999776 1.200000048 0.7599999905 0.009999999776 0 0.7599999905 0.009999999776
  1.200000048 0.7699999809 0.009999999776 0 0.7699999809 0.009999999776 1.200000048 0.7799999714 0.009999999776 0 0.7799999714
  0.009999999776 1.200000048 0.7900000215 0.009999999776 0 0.7900000215 0.009999999776 1.200000048 0.8000000119 0.009999999776 0
  0.8000000119 0.009999999776 1.200000048 0.8100000024 0.009999999776 0 0.8100000024 0.009999999776 1.200000048 0.8199999928
  0.009999999776 0 0.8199999928 0.009999999776 1.200000048 0.8299999833 0.009999999776 0 0.8299999833 0.009999999776 1.200000048
  0.8399999738 0.009999999776 0 0.8399999738 0.009999999776 1.200000048 0.8500000238 0.009999999776 0 0.8500000238 0.009999999776
  1.200000048 0.8600000143 0.009999999776 0 0.8600000143 0.009999999776 1.200000048 0.8700000048 0.009999999776 0 0.8700000048
  0.009999999776 1.200000048 0.8799999952 0.009999999776 0 0.8799999952 0.009999999776 1.200000048 0.8899999857 0.009999999776 0
  0.8899999857 0.009999999776 1.200000048 0.8999999762 0.009999999776 0 0.8999999762 0.009999999776 1.200000048 0.9100000262
  0.009999999776 0 0.9100000262 0.009999999776 1.200000048 0.9200000167 0.009999999776 0 0.9200000167 0.009999999776 1.200000048
  0.9300000072 0.009999999776 0 0.9300000072 0.009999999776 1.200000048 0.9399999976 0.009999999776 0 0.9399999976 0.009999999776
  1.200000048 0.9499999881 0.009999999776 0 0.9499999881 0.009999999776 1.200000048 0.9599999785 0.009999999776 0 0.9599999785
  0.009999999776 1.200000048 0.9700000286 0.009999999776 0 0.9700000286 0.009999999776 1.200000048 0.9800000191 0.009999999776 0
  0.9800000191 0.009999999776 1.200000048 0.9900000095 0.009999999776 0 0.9900000095 0.009999999776 1.200000048 1 0.009999999776 0 1
  0.009999999776 1.200000048 1.00999999 0.009999999776 0 1.00999999 0.009999999776 1.200000048 1.019999981 0.009999999776 0
  1.019999981 0.009999999776 1.200000048 1.029999971 0.009999999776 0 1.029999971 0.009999999776 1.200000048 1.039999962
  0.009999999776 0 1.039999962 0.009999999776 1.200000048 1.049999952 0.009999999776 0 1.049999952 0.009999999776 1.200000048
  1.059999943 0.009999999776 0 1.059999943 0.009999999776 1.200000048 1.070000052 0.009999999776 0 1.070000052 0.009999999776
  1.200000048 1.080000043 0.009999999776 0 1.080000043 0.009999999776 1.200000048 1.090000033 0.009999999776 0 1.090000033
  0.009999999776 1.200000048 1.100000024 0.009999999776 0 1.100000024 0.009999999776 1.200000048 1.110000014 0.009999999776 0
  1.110000014 0.009999999776 1.200000048 1.120000005 0.009999999776 0 1.120000005 0.009999999776 1.200000048 1.129999995
  0.009999999776 0 1.129999995 0.009999999776 1.200000048 1.139999986 0.009999999776 0 1.139999986 0.009999999776 1.200000048
  1.149999976 0.009999999776 0 1.149999976 0.009999999776 1.200000048 1.159999967 0.009999999776 0 1.159999967 0.009999999776
  1.200000048 1.169999957 0.009999999776 0 1.169999957 0.009999999776 1.200000048 1.179999948 0.009999999776 0 1.179999948
  0.009999999776 1.200000048 1.190000057 0.009999999776 0 1.190000057 0.009999999776 2*1.200000048 0.009999999776 0 1.200000048
  0.009999999776 1.200000048 1.210000038 0.009999999776 0 1.210000038 0.009999999776 1.200000048 1.220000029 0.009999999776 0
  1.220000029 0.009999999776 1.200000048 1.230000019 0.009999999776 0 1.230000019 0.009999999776 1.200000048 1.24000001
  0.009999999776 0 1.24000001 0.009999999776 1.200000048 1.25 0.009999999776 0 1.25 0.009999999776 1.200000048 1.25999999
  0.009999999776 0 1.25999999 0.009999999776 1.200000048 1.269999981 0.009999999776 0 1.269999981 0.009999999776 1.200000048
  1.279999971 0.009999999776 0 1.279999971 0.009999999776 1.200000048 1.289999962 0.009999999776 0 1.289999962 0.009999999776
  1.200000048 1.299999952 0.009999999776 0 1.299999952 0.009999999776 1.200000048 1.309999943 0.009999999776 0 1.309999943
  0.009999999776 1.200000048 1.320000052 0.009999999776 0 1.320000052 0.009999999776 1.200000048 1.330000043 0.009999999776 0
  1.330000043 0.009999999776 1.200000048 1.340000033 0.009999999776 0 1.340000033 0.009999999776 1.200000048 1.350000024
  0.009999999776 0 1.350000024 0.009999999776 1.200000048 1.360000014 0.009999999776 0 1.360000014 0.009999999776 1.200000048
  1.370000005 0.009999999776 0 1.370000005 0.009999999776 1.200000048 1.379999995 0.009999999776 0 1.379999995 0.009999999776
  1.200000048 1.389999986 0.009999999776 0 1.389999986 0.009999999776 1.200000048 1.399999976 0.009999999776 0 1.399999976
  0.009999999776 1.200000048 1.409999967 0.009999999776 0 1.409999967 0.009999999776 1.200000048 1.419999957 0.009999999776 0
  1.419999957 0.009999999776 1.200000048 1.429999948 0.009999999776 0 1.429999948 0.009999999776 1.200000048 1.440000057
  0.009999999776 0 1.440000057 0.009999999776 1.200000048 1.450000048 0.009999999776 0 1.450000048 0.009999999776 1.200000048
  1.460000038 0.009999999776 0 1.460000038 0.009999999776 1.200000048 1.470000029 0.009999999776 0 1.470000029 0.009999999776
  1.200000048 1.480000019 0.009999999776 0 1.480000019 0.009999999776 1.200000048 1.49000001 0.009999999776 0 1.49000001
  0.009999999776 1.200000048 1.5 0.009999999776 0 1.5 0.009999999776 1.200000048 1.50999999 0.009999999776 0 1.50999999
  0.009999999776 1.200000048 1.519999981 0.009999999776 0 1.519999981 0.009999999776 1.200000048 1.529999971 0.009999999776 0
  1.529999971 0.009999999776 1.200000048 1.539999962 0.009999999776 0 1.539999962 0.009999999776 1.200000048 1.549999952
  0.009999999776 0 1.549999952 0.009999999776 1.200000048 1.559999943 0.009999999776 0 1.559999943 0.009999999776 1.200000048
  1.570000052 0.009999999776 0 1.570000052 0.009999999776 1.200000048 1.580000043 0.009999999776 0 1.580000043 0.009999999776
  1.200000048 1.590000033 0.009999999776 0 1.590000033 0.009999999776 1.200000048 1.600000024 0.009999999776 0 1.600000024
  0.009999999776 1.200000048 1.610000014 0.009999999776 0 1.610000014 0.009999999776 1.200000048 1.620000005 0.009999999776 0
  1.620000005 0.009999999776 1.200000048 1.629999995 0.009999999776 0 1.629999995 0.009999999776 1.200000048 1.639999986
  0.009999999776 0 1.639999986 0.009999999776 1.200000048 1.649999976 0.009999999776 0 1.649999976 0.009999999776 1.200000048
  1.659999967 0.009999999776 0 1.659999967 0.009999999776 1.200000048 1.669999957 0.009999999776 0 1.669999957 0.009999999776
  1.200000048 1.679999948 0.009999999776 0 1.679999948 0.009999999776 1.200000048 1.690000057 0.009999999776 0 1.690000057
  0.009999999776 1.200000048 1.700000048 0.009999999776 0 1.700000048 0.009999999776 1.200000048 1.710000038 0.009999999776 0
  1.710000038 0.009999999776 1.200000048 1.720000029 0.009999999776 0 1.720000029 0.009999999776 1.200000048 1.730000019
  0.009999999776 0 1.730000019 0.009999999776 1.200000048 1.74000001 0.009999999776 0 1.74000001 0.009999999776 1.200000048 1.75
  0.009999999776 0 1.75 0.009999999776 1.200000048 1.75999999 0.009999999776 0 1.75999999 0.009999999776 1.200000048 1.769999981
  0.009999999776 0 1.769999981 0.009999999776 1.200000048 1.779999971 0.009999999776 0 1.779999971 0.009999999776 1.200000048
  1.789999962 0.009999999776 0 1.789999962 0.009999999776 1.200000048 1.799999952 0.009999999776 0 1.799999952 0.009999999776
  1.200000048 1.809999943 0.009999999776 0 1.809999943 0.009999999776 1.200000048 1.820000052 0.009999999776 0 1.820000052
  0.009999999776 1.200000048 1.830000043 0.009999999776 0 1.830000043 0.009999999776 1.200000048 1.840000033 0.009999999776 0
  1.840000033 0.009999999776 1.200000048 1.850000024 0.009999999776 0 1.850000024 0.009999999776 1.200000048 1.860000014
  0.009999999776 0 1.860000014 0.009999999776 1.200000048 1.870000005 0.009999999776 0 1.870000005 0.009999999776 1.200000048
  1.879999995 0.009999999776 0 1.879999995 0.009999999776 1.200000048 1.889999986 0.009999999776 0 1.889999986 0.009999999776
  1.200000048 1.899999976 0.009999999776 0 1.899999976 0.009999999776 1.200000048 1.909999967 0.009999999776 0 1.909999967
  0.009999999776 1.200000048 1.919999957 0.009999999776 0 1.919999957 0.009999999776 1.200000048 1.929999948 0.009999999776 0
  1.929999948 0.009999999776 1.200000048 1.940000057 0.009999999776 0 1.940000057 0.009999999776 1.200000048 1.950000048
  0.009999999776 0 1.950000048 0.009999999776 1.200000048 1.960000038 0.009999999776 0 1.960000038 0.009999999776 1.200000048
  1.970000029 0.009999999776 0 1.970000029 0.009999999776 1.200000048 1.980000019 0.009999999776 0 1.980000019 0.009999999776
  1.200000048 1.99000001 0.009999999776 0 1.99000001 0.009999999776 1.200000048 2 0.009999999776 0 2 0.009999999776 1.200000048
  2.00999999 0.009999999776 0 2.00999999 0.009999999776 1.200000048 2.019999981 0.009999999776 0 2.019999981 0.009999999776
  1.200000048 2.029999971 0.009999999776 0 2.029999971 0.009999999776 1.200000048 2.039999962 0.009999999776 0 2.039999962
  0.009999999776 1.200000048 2.049999952 0.009999999776 0 2.049999952 0.009999999776 1.200000048 2.059999943 0.009999999776 0
  2.059999943 0.009999999776 1.200000048 2.069999933 0.009999999776 0 2.069999933 0.009999999776 1.200000048 2.079999924
  0.009999999776 0 2.079999924 0.009999999776 1.200000048 2.089999914 0.009999999776 0 2.089999914 0.009999999776 1.200000048
  2.099999905 0.009999999776 0 2.099999905 0.009999999776 1.200000048 2.109999895 0.009999999776 0 2.109999895 0.009999999776
  1.200000048 2.119999886 0.009999999776 0 2.119999886 0.009999999776 1.200000048 2.130000114 0.009999999776 0 2.130000114
  0.009999999776 1.200000048 2.140000105 0.009999999776 0 2.140000105 0.009999999776 1.200000048 2.150000095 0.009999999776 0
  2.150000095 0.009999999776 1.200000048 2.160000086 0.009999999776 0 2.160000086 0.009999999776 1.200000048 2.170000076
  0.009999999776 0 2.170000076 0.009999999776 1.200000048 2.180000067 0.009999999776 0 2.180000067 0.009999999776 1.200000048
  2.190000057 0.009999999776 0 2.190000057 0.009999999776 1.200000048 2.200000048 0.009999999776 0 2.200000048 0.009999999776
  1.200000048 2.210000038 0.009999999776 0 2.210000038 0.009999999776 1.200000048 2.220000029 0.009999999776 0 2.220000029
  0.009999999776 1.200000048 2.230000019 0.009999999776 0 2.230000019 0.009999999776 1.200000048 2.24000001 0.009999999776 0
  2.24000001 0.009999999776 1.200000048 2.25 0.009999999776 0 2.25 0.009999999776 1.200000048 2.25999999 0.009999999776 0 2.25999999
  0.009999999776 1.200000048 2.269999981 0.009999999776 0 2.269999981 0.009999999776 1.200000048 2.279999971 0.009999999776 0
  2.279999971 0.009999999776 1.200000048 2.289999962 0.009999999776 0 2.289999962 0.009999999776 1.200000048 2.299999952
  0.009999999776 0 2.299999952 0.009999999776 1.200000048 2.309999943 0.009999999776 0 2.309999943 0.009999999776 1.200000048